 VARIABLES  =  "X"  "temp"  "u"  "rho"  "X_H2" "X_O2" "X_H2O" "X_H" "X_O" "X_OH" "X_HO2" "X_H2O2" "X_N2"
 ZONE  I=438  FORMAT=POINT  SPECFORMAT=MOLE
 0.108333333	300		1016.099768	0.00048787	0.666666667	0.333333333	6.05966E-18	8.49974E-21	-3.52783E-18	5.56909E-19	-6.01297E-18	-1.88669E-18
 1		        300		1016.099768	0.00048787	0.666666667	0.333333333	6.05966E-18	8.49974E-21	-3.52783E-18	5.56909E-19	-6.01297E-18	-1.88669E-18
