VARIABLES  =  "X"  "temp"  "u"  "pres"  "X_H2" "X_O2" "X_H2O" "X_H" "X_O" "X_OH" "X_HO2" "X_H2O2" "X_N2" 
 ZONE  I=438  FORMAT=POINT  SPECFORMAT=MOLE 
1.083333e-01 3.676556e+03 0.000000e+00 4.762432e+07 6.666667e-01 3.333333e-01 0.000000e+00 0.000000e+00 0.000000e+00 0.000000e+00 
1.833333e-01 3.676556e+03 0.000000e+00 4.762432e+07 6.666667e-01 3.333333e-01 0.000000e+00 0.000000e+00 0.000000e+00 0.000000e+00 
2.583333e-01 3.676556e+03 0.000000e+00 4.762432e+07 6.666667e-01 3.333333e-01 0.000000e+00 0.000000e+00 0.000000e+00 0.000000e+00 
2.958333e-01 3.676556e+03 0.000000e+00 4.762432e+07 6.666667e-01 3.333333e-01 0.000000e+00 0.000000e+00 0.000000e+00 0.000000e+00 
3.145833e-01 3.676556e+03 0.000000e+00 4.762432e+07 6.666667e-01 3.333333e-01 0.000000e+00 0.000000e+00 0.000000e+00 0.000000e+00 
3.286458e-01 3.676556e+03 0.000000e+00 4.762432e+07 6.666667e-01 3.333333e-01 0.000000e+00 0.000000e+00 0.000000e+00 0.000000e+00 
3.375000e-01 3.676556e+03 0.000000e+00 4.762432e+07 6.666667e-01 3.333333e-01 0.000000e+00 0.000000e+00 0.000000e+00 0.000000e+00 
3.458333e-01 3.676556e+03 0.000000e+00 4.762432e+07 6.666667e-01 3.333333e-01 0.000000e+00 0.000000e+00 0.000000e+00 0.000000e+00 
3.500000e-01 3.676556e+03 0.000000e+00 4.762432e+07 6.666667e-01 3.333333e-01 0.000000e+00 0.000000e+00 0.000000e+00 0.000000e+00 
3.520833e-01 3.676556e+03 0.000000e+00 4.762432e+07 6.666667e-01 3.333333e-01 0.000000e+00 0.000000e+00 0.000000e+00 0.000000e+00 
3.531250e-01 3.676556e+03 0.000000e+00 4.762432e+07 6.666667e-01 3.333333e-01 0.000000e+00 0.000000e+00 0.000000e+00 0.000000e+00 
3.541667e-01 3.676556e+03 0.000000e+00 4.762432e+07 6.666667e-01 3.333333e-01 0.000000e+00 0.000000e+00 0.000000e+00 0.000000e+00 
3.552083e-01 3.676556e+03 0.000000e+00 4.762432e+07 6.666667e-01 3.333333e-01 0.000000e+00 0.000000e+00 0.000000e+00 0.000000e+00 
3.557292e-01 3.676556e+03 0.000000e+00 4.762432e+07 6.666667e-01 3.333333e-01 0.000000e+00 0.000000e+00 0.000000e+00 0.000000e+00 
3.562500e-01 3.676556e+03 0.000000e+00 4.762432e+07 6.666667e-01 3.333333e-01 0.000000e+00 0.000000e+00 0.000000e+00 0.000000e+00 
3.567708e-01 3.676556e+03 0.000000e+00 4.762432e+07 6.666667e-01 3.333333e-01 0.000000e+00 0.000000e+00 0.000000e+00 0.000000e+00 
3.572917e-01 3.676556e+03 0.000000e+00 4.762432e+07 6.666667e-01 3.333333e-01 0.000000e+00 0.000000e+00 0.000000e+00 0.000000e+00 
3.578125e-01 3.676556e+03 0.000000e+00 4.762432e+07 6.666667e-01 3.333333e-01 0.000000e+00 0.000000e+00 0.000000e+00 0.000000e+00 
3.580729e-01 3.676556e+03 0.000000e+00 4.762432e+07 6.666667e-01 3.333333e-01 0.000000e+00 0.000000e+00 0.000000e+00 0.000000e+00 
3.583333e-01 3.676556e+03 0.000000e+00 4.762432e+07 6.666667e-01 3.333333e-01 0.000000e+00 0.000000e+00 0.000000e+00 0.000000e+00 
3.585937e-01 3.676556e+03 0.000000e+00 4.762432e+07 6.666667e-01 3.333333e-01 0.000000e+00 0.000000e+00 0.000000e+00 0.000000e+00 
3.587240e-01 3.676556e+03 0.000000e+00 4.762432e+07 6.666667e-01 3.333333e-01 0.000000e+00 0.000000e+00 0.000000e+00 0.000000e+00 
3.588542e-01 3.676556e+03 0.000000e+00 4.762432e+07 6.666667e-01 3.333333e-01 0.000000e+00 0.000000e+00 0.000000e+00 0.000000e+00 
3.589193e-01 3.676556e+03 0.000000e+00 4.762432e+07 6.666667e-01 3.333333e-01 0.000000e+00 0.000000e+00 0.000000e+00 0.000000e+00 
3.589844e-01 3.676556e+03 0.000000e+00 4.762432e+07 6.666667e-01 3.333333e-01 0.000000e+00 0.000000e+00 0.000000e+00 0.000000e+00 
3.590495e-01 3.676556e+03 0.000000e+00 4.762432e+07 6.666667e-01 3.333333e-01 0.000000e+00 0.000000e+00 0.000000e+00 0.000000e+00 
3.591146e-01 3.676556e+03 0.000000e+00 4.762432e+07 6.666667e-01 3.333333e-01 0.000000e+00 0.000000e+00 0.000000e+00 0.000000e+00 
3.591797e-01 3.676556e+03 0.000000e+00 4.762432e+07 6.666667e-01 3.333333e-01 0.000000e+00 0.000000e+00 0.000000e+00 0.000000e+00 
3.592448e-01 3.676556e+03 0.000000e+00 4.762432e+07 6.666667e-01 3.333333e-01 0.000000e+00 0.000000e+00 0.000000e+00 0.000000e+00 
3.593099e-01 3.676556e+03 0.000000e+00 4.762432e+07 6.666667e-01 3.333333e-01 0.000000e+00 0.000000e+00 0.000000e+00 0.000000e+00 
3.593750e-01 3.676556e+03 0.000000e+00 4.762432e+07 6.666667e-01 3.333333e-01 0.000000e+00 0.000000e+00 0.000000e+00 0.000000e+00 
3.594401e-01 3.676556e+03 0.000000e+00 4.762432e+07 6.666667e-01 3.333333e-01 0.000000e+00 0.000000e+00 0.000000e+00 0.000000e+00 
3.595052e-01 3.676556e+03 0.000000e+00 4.762432e+07 6.666667e-01 3.333333e-01 0.000000e+00 0.000000e+00 0.000000e+00 0.000000e+00 
3.595703e-01 3.676556e+03 0.000000e+00 4.762432e+07 6.666667e-01 3.333333e-01 0.000000e+00 0.000000e+00 0.000000e+00 0.000000e+00 
3.596029e-01 3.676556e+03 0.000000e+00 4.762432e+07 6.666667e-01 3.333333e-01 0.000000e+00 0.000000e+00 0.000000e+00 0.000000e+00 
3.596354e-01 3.676556e+03 0.000000e+00 4.762432e+07 6.666667e-01 3.333333e-01 0.000000e+00 0.000000e+00 0.000000e+00 0.000000e+00 
3.596680e-01 3.676556e+03 0.000000e+00 4.762432e+07 6.666667e-01 3.333333e-01 0.000000e+00 0.000000e+00 0.000000e+00 0.000000e+00 
3.597005e-01 3.676556e+03 0.000000e+00 4.762432e+07 6.666667e-01 3.333333e-01 0.000000e+00 0.000000e+00 0.000000e+00 0.000000e+00 
3.597331e-01 3.676556e+03 0.000000e+00 4.762432e+07 6.666667e-01 3.333333e-01 0.000000e+00 0.000000e+00 0.000000e+00 0.000000e+00 
3.597656e-01 3.676556e+03 0.000000e+00 4.762432e+07 6.666667e-01 3.333333e-01 0.000000e+00 0.000000e+00 0.000000e+00 0.000000e+00 
3.597982e-01 3.676556e+03 0.000000e+00 4.762432e+07 6.666667e-01 3.333333e-01 0.000000e+00 0.000000e+00 0.000000e+00 0.000000e+00 
3.598307e-01 3.676556e+03 0.000000e+00 4.762432e+07 6.666667e-01 3.333333e-01 0.000000e+00 0.000000e+00 0.000000e+00 0.000000e+00 
3.598633e-01 3.676556e+03 0.000000e+00 4.762432e+07 6.666667e-01 3.333333e-01 0.000000e+00 0.000000e+00 0.000000e+00 0.000000e+00 
3.598958e-01 3.676556e+03 0.000000e+00 4.762432e+07 6.666667e-01 3.333333e-01 0.000000e+00 0.000000e+00 0.000000e+00 0.000000e+00 
3.599284e-01 3.676556e+03 0.000000e+00 4.762432e+07 6.666667e-01 3.333333e-01 0.000000e+00 0.000000e+00 0.000000e+00 0.000000e+00 
3.599609e-01 3.676556e+03 0.000000e+00 4.762432e+07 6.666667e-01 3.333333e-01 0.000000e+00 0.000000e+00 0.000000e+00 0.000000e+00 
3.599935e-01 3.676556e+03 0.000000e+00 4.762432e+07 6.666667e-01 3.333333e-01 0.000000e+00 0.000000e+00 0.000000e+00 0.000000e+00 
3.600260e-01 3.676556e+03 0.000000e+00 4.762432e+07 6.666667e-01 3.333333e-01 0.000000e+00 0.000000e+00 0.000000e+00 0.000000e+00 
3.600586e-01 3.676556e+03 0.000000e+00 4.762432e+07 6.666667e-01 3.333333e-01 0.000000e+00 0.000000e+00 0.000000e+00 0.000000e+00 
3.600911e-01 3.676556e+03 0.000000e+00 4.762432e+07 6.666667e-01 3.333333e-01 0.000000e+00 0.000000e+00 0.000000e+00 0.000000e+00 
3.601237e-01 3.676556e+03 0.000000e+00 4.762432e+07 6.666667e-01 3.333333e-01 0.000000e+00 0.000000e+00 0.000000e+00 0.000000e+00 
3.601563e-01 3.676556e+03 0.000000e+00 4.762432e+07 6.666667e-01 3.333333e-01 0.000000e+00 0.000000e+00 0.000000e+00 0.000000e+00 
3.601888e-01 3.676556e+03 0.000000e+00 4.762432e+07 6.666667e-01 3.333333e-01 0.000000e+00 0.000000e+00 0.000000e+00 0.000000e+00 
3.602214e-01 3.676556e+03 0.000000e+00 4.762432e+07 6.666667e-01 3.333333e-01 0.000000e+00 0.000000e+00 0.000000e+00 0.000000e+00 
3.602539e-01 3.676556e+03 0.000000e+00 4.762432e+07 6.666667e-01 3.333333e-01 0.000000e+00 0.000000e+00 0.000000e+00 0.000000e+00 
3.602865e-01 3.676556e+03 0.000000e+00 4.762432e+07 6.666667e-01 3.333333e-01 0.000000e+00 0.000000e+00 0.000000e+00 0.000000e+00 
3.603190e-01 3.676556e+03 0.000000e+00 4.762432e+07 6.666667e-01 3.333333e-01 0.000000e+00 0.000000e+00 0.000000e+00 0.000000e+00 
3.603516e-01 3.676556e+03 0.000000e+00 4.762432e+07 6.666667e-01 3.333333e-01 0.000000e+00 0.000000e+00 0.000000e+00 0.000000e+00 
3.603841e-01 3.676556e+03 0.000000e+00 4.762432e+07 6.666667e-01 3.333333e-01 0.000000e+00 0.000000e+00 0.000000e+00 0.000000e+00 
3.604167e-01 3.676556e+03 0.000000e+00 4.762432e+07 6.666667e-01 3.333333e-01 0.000000e+00 0.000000e+00 0.000000e+00 0.000000e+00 
3.604492e-01 3.676556e+03 0.000000e+00 4.762432e+07 6.666667e-01 3.333333e-01 0.000000e+00 0.000000e+00 0.000000e+00 0.000000e+00 
3.604818e-01 3.676556e+03 0.000000e+00 4.762432e+07 6.666667e-01 3.333333e-01 0.000000e+00 0.000000e+00 0.000000e+00 0.000000e+00 
3.605143e-01 3.676556e+03 0.000000e+00 4.762432e+07 6.666667e-01 3.333333e-01 0.000000e+00 0.000000e+00 0.000000e+00 0.000000e+00 
3.605469e-01 3.676556e+03 0.000000e+00 4.762432e+07 6.666667e-01 3.333333e-01 0.000000e+00 0.000000e+00 0.000000e+00 0.000000e+00 
3.605794e-01 3.676556e+03 0.000000e+00 4.762432e+07 6.666667e-01 3.333333e-01 0.000000e+00 0.000000e+00 0.000000e+00 0.000000e+00 
3.606120e-01 3.676556e+03 0.000000e+00 4.762432e+07 6.666667e-01 3.333333e-01 0.000000e+00 0.000000e+00 0.000000e+00 0.000000e+00 
3.606445e-01 3.676556e+03 0.000000e+00 4.762432e+07 6.666667e-01 3.333333e-01 0.000000e+00 0.000000e+00 0.000000e+00 0.000000e+00 
3.606771e-01 3.676556e+03 0.000000e+00 4.762432e+07 6.666667e-01 3.333333e-01 0.000000e+00 0.000000e+00 0.000000e+00 0.000000e+00 
3.607096e-01 3.676556e+03 0.000000e+00 4.762432e+07 6.666667e-01 3.333333e-01 0.000000e+00 0.000000e+00 0.000000e+00 0.000000e+00 
3.607422e-01 3.676556e+03 0.000000e+00 4.762432e+07 6.666667e-01 3.333333e-01 0.000000e+00 0.000000e+00 0.000000e+00 0.000000e+00 
3.607747e-01 3.676556e+03 0.000000e+00 4.762432e+07 6.666667e-01 3.333333e-01 0.000000e+00 0.000000e+00 0.000000e+00 0.000000e+00 
3.608073e-01 3.676556e+03 0.000000e+00 4.762432e+07 6.666667e-01 3.333333e-01 0.000000e+00 0.000000e+00 0.000000e+00 0.000000e+00 
3.608398e-01 3.676556e+03 0.000000e+00 4.762432e+07 6.666667e-01 3.333333e-01 0.000000e+00 0.000000e+00 0.000000e+00 0.000000e+00 
3.608724e-01 3.676556e+03 0.000000e+00 4.762432e+07 6.666667e-01 3.333333e-01 0.000000e+00 0.000000e+00 0.000000e+00 0.000000e+00 
3.609049e-01 3.676556e+03 0.000000e+00 4.762432e+07 6.666667e-01 3.333333e-01 0.000000e+00 0.000000e+00 0.000000e+00 0.000000e+00 
3.609375e-01 3.676556e+03 0.000000e+00 4.762432e+07 6.666667e-01 3.333333e-01 0.000000e+00 0.000000e+00 0.000000e+00 0.000000e+00 
3.609701e-01 3.676556e+03 0.000000e+00 4.762432e+07 6.666667e-01 3.333333e-01 0.000000e+00 0.000000e+00 0.000000e+00 0.000000e+00 
3.610026e-01 3.676556e+03 0.000000e+00 4.762432e+07 6.666667e-01 3.333333e-01 0.000000e+00 0.000000e+00 0.000000e+00 0.000000e+00 
3.610352e-01 3.676556e+03 0.000000e+00 4.762432e+07 6.666667e-01 3.333333e-01 0.000000e+00 0.000000e+00 0.000000e+00 0.000000e+00 
3.610677e-01 3.676556e+03 0.000000e+00 4.762432e+07 6.666667e-01 3.333333e-01 0.000000e+00 0.000000e+00 0.000000e+00 0.000000e+00 
3.611003e-01 3.676556e+03 0.000000e+00 4.762432e+07 6.666667e-01 3.333333e-01 0.000000e+00 0.000000e+00 0.000000e+00 0.000000e+00 
3.611328e-01 3.676556e+03 0.000000e+00 4.762432e+07 6.666667e-01 3.333333e-01 0.000000e+00 0.000000e+00 0.000000e+00 0.000000e+00 
3.611654e-01 3.676556e+03 0.000000e+00 4.762432e+07 6.666667e-01 3.333333e-01 0.000000e+00 0.000000e+00 0.000000e+00 0.000000e+00 
3.611979e-01 3.676556e+03 0.000000e+00 4.762432e+07 6.666667e-01 3.333333e-01 0.000000e+00 0.000000e+00 0.000000e+00 0.000000e+00 
3.612305e-01 3.676556e+03 0.000000e+00 4.762432e+07 6.666667e-01 3.333333e-01 0.000000e+00 0.000000e+00 0.000000e+00 0.000000e+00 
3.612630e-01 3.676556e+03 0.000000e+00 4.762432e+07 6.666667e-01 3.333333e-01 0.000000e+00 0.000000e+00 0.000000e+00 0.000000e+00 
3.612956e-01 3.676556e+03 0.000000e+00 4.762432e+07 6.666667e-01 3.333333e-01 0.000000e+00 0.000000e+00 0.000000e+00 0.000000e+00 
3.613281e-01 3.676556e+03 0.000000e+00 4.762432e+07 6.666667e-01 3.333333e-01 0.000000e+00 0.000000e+00 0.000000e+00 0.000000e+00 
3.613607e-01 3.676556e+03 0.000000e+00 4.762432e+07 6.666667e-01 3.333333e-01 0.000000e+00 0.000000e+00 0.000000e+00 0.000000e+00 
3.613932e-01 3.676556e+03 0.000000e+00 4.762432e+07 6.666667e-01 3.333333e-01 0.000000e+00 0.000000e+00 0.000000e+00 0.000000e+00 
3.614258e-01 3.676556e+03 0.000000e+00 4.762432e+07 6.666667e-01 3.333333e-01 0.000000e+00 0.000000e+00 0.000000e+00 0.000000e+00 
3.614583e-01 3.676556e+03 0.000000e+00 4.762432e+07 6.666667e-01 3.333333e-01 0.000000e+00 0.000000e+00 0.000000e+00 0.000000e+00 
3.614909e-01 3.676556e+03 0.000000e+00 4.762432e+07 6.666667e-01 3.333333e-01 0.000000e+00 0.000000e+00 0.000000e+00 0.000000e+00 
3.615234e-01 3.676556e+03 0.000000e+00 4.762432e+07 6.666667e-01 3.333333e-01 0.000000e+00 0.000000e+00 0.000000e+00 0.000000e+00 
3.615397e-01 3.676556e+03 0.000000e+00 4.762432e+07 6.666667e-01 3.333333e-01 0.000000e+00 0.000000e+00 0.000000e+00 0.000000e+00 
3.615560e-01 3.676556e+03 0.000000e+00 4.762432e+07 6.666667e-01 3.333333e-01 0.000000e+00 0.000000e+00 0.000000e+00 0.000000e+00 
3.615723e-01 3.676556e+03 0.000000e+00 4.762432e+07 6.666667e-01 3.333333e-01 0.000000e+00 0.000000e+00 0.000000e+00 0.000000e+00 
3.615885e-01 3.676556e+03 0.000000e+00 4.762432e+07 6.666667e-01 3.333333e-01 0.000000e+00 0.000000e+00 0.000000e+00 0.000000e+00 
3.616048e-01 3.676556e+03 0.000000e+00 4.762432e+07 6.666667e-01 3.333333e-01 0.000000e+00 0.000000e+00 0.000000e+00 0.000000e+00 
3.616211e-01 3.676556e+03 0.000000e+00 4.762432e+07 6.666667e-01 3.333333e-01 0.000000e+00 0.000000e+00 0.000000e+00 0.000000e+00 
3.616374e-01 3.676556e+03 0.000000e+00 4.762432e+07 6.666667e-01 3.333333e-01 0.000000e+00 0.000000e+00 0.000000e+00 0.000000e+00 
3.616536e-01 3.676556e+03 0.000000e+00 4.762432e+07 6.666667e-01 3.333333e-01 0.000000e+00 0.000000e+00 0.000000e+00 0.000000e+00 
3.616699e-01 3.676556e+03 0.000000e+00 4.762432e+07 6.666667e-01 3.333333e-01 0.000000e+00 0.000000e+00 0.000000e+00 0.000000e+00 
3.616862e-01 3.676556e+03 0.000000e+00 4.762432e+07 6.666667e-01 3.333333e-01 0.000000e+00 0.000000e+00 0.000000e+00 0.000000e+00 
3.617025e-01 3.676556e+03 0.000000e+00 4.762432e+07 6.666667e-01 3.333333e-01 0.000000e+00 0.000000e+00 0.000000e+00 0.000000e+00 
3.617187e-01 3.676556e+03 0.000000e+00 4.762432e+07 6.666667e-01 3.333333e-01 0.000000e+00 0.000000e+00 0.000000e+00 0.000000e+00 
3.617350e-01 3.676556e+03 0.000000e+00 4.762432e+07 6.666667e-01 3.333333e-01 0.000000e+00 0.000000e+00 0.000000e+00 0.000000e+00 
3.617513e-01 3.676556e+03 0.000000e+00 4.762432e+07 6.666667e-01 3.333333e-01 0.000000e+00 0.000000e+00 0.000000e+00 0.000000e+00 
3.617676e-01 3.676556e+03 0.000000e+00 4.762432e+07 6.666667e-01 3.333333e-01 0.000000e+00 0.000000e+00 0.000000e+00 0.000000e+00 
3.617839e-01 3.676556e+03 0.000000e+00 4.762432e+07 6.666667e-01 3.333333e-01 0.000000e+00 0.000000e+00 0.000000e+00 0.000000e+00 
3.618001e-01 3.676556e+03 0.000000e+00 4.762432e+07 6.666667e-01 3.333333e-01 0.000000e+00 0.000000e+00 0.000000e+00 0.000000e+00 
3.618164e-01 3.676556e+03 0.000000e+00 4.762432e+07 6.666667e-01 3.333333e-01 0.000000e+00 0.000000e+00 0.000000e+00 0.000000e+00 
3.618327e-01 3.676556e+03 0.000000e+00 4.762432e+07 6.666667e-01 3.333333e-01 0.000000e+00 0.000000e+00 0.000000e+00 0.000000e+00 
3.618490e-01 3.676556e+03 0.000000e+00 4.762432e+07 6.666667e-01 3.333333e-01 0.000000e+00 0.000000e+00 0.000000e+00 0.000000e+00 
3.618652e-01 3.676556e+03 0.000000e+00 4.762432e+07 6.666667e-01 3.333333e-01 0.000000e+00 0.000000e+00 0.000000e+00 0.000000e+00 
3.618815e-01 3.676556e+03 0.000000e+00 4.762432e+07 6.666667e-01 3.333333e-01 0.000000e+00 0.000000e+00 0.000000e+00 0.000000e+00 
3.618978e-01 3.676556e+03 0.000000e+00 4.762432e+07 6.666667e-01 3.333333e-01 0.000000e+00 0.000000e+00 0.000000e+00 0.000000e+00 
3.619141e-01 3.676556e+03 0.000000e+00 4.762432e+07 6.666667e-01 3.333333e-01 0.000000e+00 0.000000e+00 0.000000e+00 0.000000e+00 
3.619303e-01 3.676556e+03 0.000000e+00 4.762432e+07 6.666667e-01 3.333333e-01 0.000000e+00 0.000000e+00 0.000000e+00 0.000000e+00 
3.619466e-01 3.676556e+03 0.000000e+00 4.762432e+07 6.666667e-01 3.333333e-01 0.000000e+00 0.000000e+00 0.000000e+00 0.000000e+00 
3.619629e-01 3.676556e+03 0.000000e+00 4.762432e+07 6.666667e-01 3.333333e-01 0.000000e+00 0.000000e+00 0.000000e+00 0.000000e+00 
3.619792e-01 3.676556e+03 0.000000e+00 4.762432e+07 6.666667e-01 3.333333e-01 0.000000e+00 0.000000e+00 0.000000e+00 0.000000e+00 
3.619954e-01 3.676556e+03 0.000000e+00 4.762432e+07 6.666667e-01 3.333333e-01 0.000000e+00 0.000000e+00 0.000000e+00 0.000000e+00 
3.620117e-01 3.676556e+03 0.000000e+00 4.762432e+07 6.666667e-01 3.333333e-01 0.000000e+00 0.000000e+00 0.000000e+00 0.000000e+00 
3.620280e-01 3.676556e+03 0.000000e+00 4.762432e+07 6.666667e-01 3.333333e-01 0.000000e+00 0.000000e+00 0.000000e+00 0.000000e+00 
3.620443e-01 3.676556e+03 0.000000e+00 4.762432e+07 6.666667e-01 3.333333e-01 0.000000e+00 0.000000e+00 0.000000e+00 0.000000e+00 
3.620605e-01 3.676556e+03 0.000000e+00 4.762432e+07 6.666667e-01 3.333333e-01 0.000000e+00 0.000000e+00 0.000000e+00 0.000000e+00 
3.620768e-01 3.676556e+03 0.000000e+00 4.762432e+07 6.666667e-01 3.333333e-01 0.000000e+00 0.000000e+00 0.000000e+00 0.000000e+00 
3.620931e-01 3.676556e+03 0.000000e+00 4.762432e+07 6.666667e-01 3.333333e-01 0.000000e+00 0.000000e+00 0.000000e+00 0.000000e+00 
3.621094e-01 3.676556e+03 0.000000e+00 4.762432e+07 6.666667e-01 3.333333e-01 0.000000e+00 0.000000e+00 0.000000e+00 0.000000e+00 
3.621257e-01 3.676556e+03 0.000000e+00 4.762432e+07 6.666667e-01 3.333333e-01 0.000000e+00 0.000000e+00 0.000000e+00 0.000000e+00 
3.621419e-01 3.676556e+03 0.000000e+00 4.762432e+07 6.666667e-01 3.333333e-01 0.000000e+00 0.000000e+00 0.000000e+00 0.000000e+00 
3.621582e-01 3.676556e+03 0.000000e+00 4.762432e+07 6.666667e-01 3.333333e-01 0.000000e+00 0.000000e+00 0.000000e+00 0.000000e+00 
3.621745e-01 3.676556e+03 0.000000e+00 4.762432e+07 6.666667e-01 3.333333e-01 0.000000e+00 0.000000e+00 0.000000e+00 0.000000e+00 
3.621908e-01 3.676556e+03 0.000000e+00 4.762432e+07 6.666667e-01 3.333333e-01 0.000000e+00 0.000000e+00 0.000000e+00 0.000000e+00 
3.622070e-01 3.676556e+03 0.000000e+00 4.762432e+07 6.666667e-01 3.333333e-01 0.000000e+00 0.000000e+00 0.000000e+00 0.000000e+00 
3.622233e-01 3.676556e+03 0.000000e+00 4.762432e+07 6.666667e-01 3.333333e-01 0.000000e+00 0.000000e+00 0.000000e+00 0.000000e+00 
3.622396e-01 3.676556e+03 0.000000e+00 4.762432e+07 6.666667e-01 3.333333e-01 0.000000e+00 0.000000e+00 0.000000e+00 0.000000e+00 
3.622559e-01 3.676556e+03 0.000000e+00 4.762432e+07 6.666667e-01 3.333333e-01 0.000000e+00 0.000000e+00 0.000000e+00 0.000000e+00 
3.622721e-01 3.676556e+03 0.000000e+00 4.762432e+07 6.666667e-01 3.333333e-01 0.000000e+00 0.000000e+00 0.000000e+00 0.000000e+00 
3.622884e-01 3.676556e+03 0.000000e+00 4.762432e+07 6.666667e-01 3.333333e-01 0.000000e+00 0.000000e+00 0.000000e+00 0.000000e+00 
3.623047e-01 3.676556e+03 0.000000e+00 4.762432e+07 6.666667e-01 3.333333e-01 0.000000e+00 0.000000e+00 0.000000e+00 0.000000e+00 
3.623372e-01 3.676556e+03 0.000000e+00 4.762432e+07 6.666667e-01 3.333333e-01 0.000000e+00 0.000000e+00 0.000000e+00 0.000000e+00 
3.623698e-01 3.676556e+03 0.000000e+00 4.762432e+07 6.666667e-01 3.333333e-01 0.000000e+00 0.000000e+00 0.000000e+00 0.000000e+00 
3.624023e-01 3.676556e+03 0.000000e+00 4.762432e+07 6.666667e-01 3.333333e-01 0.000000e+00 0.000000e+00 0.000000e+00 0.000000e+00 
3.624349e-01 3.676556e+03 0.000000e+00 4.762432e+07 6.666667e-01 3.333333e-01 0.000000e+00 0.000000e+00 0.000000e+00 0.000000e+00 
3.624674e-01 3.676556e+03 0.000000e+00 4.762432e+07 6.666667e-01 3.333333e-01 0.000000e+00 0.000000e+00 0.000000e+00 0.000000e+00 
3.625000e-01 3.676556e+03 0.000000e+00 4.762432e+07 6.666667e-01 3.333333e-01 0.000000e+00 0.000000e+00 0.000000e+00 0.000000e+00 
3.625326e-01 3.676556e+03 0.000000e+00 4.762432e+07 6.666667e-01 3.333333e-01 0.000000e+00 0.000000e+00 0.000000e+00 0.000000e+00 
3.625651e-01 3.676556e+03 0.000000e+00 4.762432e+07 6.666667e-01 3.333333e-01 0.000000e+00 0.000000e+00 0.000000e+00 0.000000e+00 
3.625977e-01 3.676556e+03 0.000000e+00 4.762432e+07 6.666667e-01 3.333333e-01 0.000000e+00 0.000000e+00 0.000000e+00 0.000000e+00 
3.626302e-01 3.676556e+03 0.000000e+00 4.762432e+07 6.666667e-01 3.333333e-01 0.000000e+00 0.000000e+00 0.000000e+00 0.000000e+00 
3.626628e-01 3.676556e+03 0.000000e+00 4.762432e+07 6.666667e-01 3.333333e-01 0.000000e+00 0.000000e+00 0.000000e+00 0.000000e+00 
3.626953e-01 3.676556e+03 0.000000e+00 4.762432e+07 6.666667e-01 3.333333e-01 0.000000e+00 0.000000e+00 0.000000e+00 0.000000e+00 
3.627279e-01 3.676556e+03 0.000000e+00 4.762432e+07 6.666667e-01 3.333333e-01 0.000000e+00 0.000000e+00 0.000000e+00 0.000000e+00 
3.627604e-01 3.676556e+03 0.000000e+00 4.762432e+07 6.666667e-01 3.333333e-01 0.000000e+00 0.000000e+00 0.000000e+00 0.000000e+00 
3.627930e-01 3.676556e+03 0.000000e+00 4.762432e+07 6.666667e-01 3.333333e-01 0.000000e+00 0.000000e+00 0.000000e+00 0.000000e+00 
3.628255e-01 3.676556e+03 0.000000e+00 4.762432e+07 6.666667e-01 3.333333e-01 0.000000e+00 0.000000e+00 0.000000e+00 0.000000e+00 
3.628581e-01 3.676556e+03 0.000000e+00 4.762432e+07 6.666667e-01 3.333333e-01 0.000000e+00 0.000000e+00 0.000000e+00 0.000000e+00 
3.628906e-01 3.676556e+03 0.000000e+00 4.762432e+07 6.666667e-01 3.333333e-01 0.000000e+00 0.000000e+00 0.000000e+00 0.000000e+00 
3.629232e-01 3.676556e+03 0.000000e+00 4.762432e+07 6.666667e-01 3.333333e-01 0.000000e+00 0.000000e+00 0.000000e+00 0.000000e+00 
3.629557e-01 3.676556e+03 0.000000e+00 4.762432e+07 6.666667e-01 3.333333e-01 0.000000e+00 0.000000e+00 0.000000e+00 0.000000e+00 
3.629883e-01 3.676556e+03 0.000000e+00 4.762432e+07 6.666667e-01 3.333333e-01 0.000000e+00 0.000000e+00 0.000000e+00 0.000000e+00 
3.630208e-01 3.676556e+03 0.000000e+00 4.762432e+07 6.666667e-01 3.333333e-01 0.000000e+00 0.000000e+00 0.000000e+00 0.000000e+00 
3.630534e-01 3.676556e+03 0.000000e+00 4.762432e+07 6.666667e-01 3.333333e-01 0.000000e+00 0.000000e+00 0.000000e+00 0.000000e+00 
3.630859e-01 3.676556e+03 0.000000e+00 4.762432e+07 6.666667e-01 3.333333e-01 0.000000e+00 0.000000e+00 0.000000e+00 0.000000e+00 
3.631185e-01 3.676556e+03 0.000000e+00 4.762432e+07 6.666667e-01 3.333333e-01 0.000000e+00 0.000000e+00 0.000000e+00 0.000000e+00 
3.631510e-01 3.676556e+03 0.000000e+00 4.762432e+07 6.666667e-01 3.333333e-01 0.000000e+00 0.000000e+00 0.000000e+00 0.000000e+00 
3.631836e-01 3.676556e+03 0.000000e+00 4.762432e+07 6.666667e-01 3.333333e-01 0.000000e+00 0.000000e+00 0.000000e+00 0.000000e+00 
3.632161e-01 3.676556e+03 0.000000e+00 4.762432e+07 6.666667e-01 3.333333e-01 0.000000e+00 0.000000e+00 0.000000e+00 0.000000e+00 
3.632487e-01 3.676556e+03 0.000000e+00 4.762432e+07 6.666667e-01 3.333333e-01 0.000000e+00 0.000000e+00 0.000000e+00 0.000000e+00 
3.632812e-01 3.676556e+03 0.000000e+00 4.762432e+07 6.666667e-01 3.333333e-01 0.000000e+00 0.000000e+00 0.000000e+00 0.000000e+00 
3.633138e-01 3.676556e+03 0.000000e+00 4.762432e+07 6.666667e-01 3.333333e-01 0.000000e+00 0.000000e+00 0.000000e+00 0.000000e+00 
3.633464e-01 3.676556e+03 0.000000e+00 4.762432e+07 6.666667e-01 3.333333e-01 0.000000e+00 0.000000e+00 0.000000e+00 0.000000e+00 
3.633789e-01 3.676556e+03 0.000000e+00 4.762432e+07 6.666667e-01 3.333333e-01 0.000000e+00 0.000000e+00 0.000000e+00 0.000000e+00 
3.634115e-01 3.676556e+03 0.000000e+00 4.762432e+07 6.666667e-01 3.333333e-01 0.000000e+00 0.000000e+00 0.000000e+00 0.000000e+00 
3.634440e-01 3.676556e+03 0.000000e+00 4.762432e+07 6.666667e-01 3.333333e-01 0.000000e+00 0.000000e+00 0.000000e+00 0.000000e+00 
3.634766e-01 3.676556e+03 0.000000e+00 4.762432e+07 6.666667e-01 3.333333e-01 0.000000e+00 0.000000e+00 0.000000e+00 0.000000e+00 
3.635091e-01 3.676556e+03 0.000000e+00 4.762432e+07 6.666667e-01 3.333333e-01 0.000000e+00 0.000000e+00 0.000000e+00 0.000000e+00 
3.635417e-01 3.676556e+03 0.000000e+00 4.762432e+07 6.666667e-01 3.333333e-01 0.000000e+00 0.000000e+00 0.000000e+00 0.000000e+00 
3.635742e-01 3.676556e+03 0.000000e+00 4.762432e+07 6.666667e-01 3.333333e-01 0.000000e+00 0.000000e+00 0.000000e+00 0.000000e+00 
3.636068e-01 3.676556e+03 0.000000e+00 4.762432e+07 6.666667e-01 3.333333e-01 0.000000e+00 0.000000e+00 0.000000e+00 0.000000e+00 
3.636393e-01 3.676556e+03 0.000000e+00 4.762432e+07 6.666667e-01 3.333333e-01 0.000000e+00 0.000000e+00 0.000000e+00 0.000000e+00 
3.636719e-01 3.676556e+03 0.000000e+00 4.762432e+07 6.666667e-01 3.333333e-01 0.000000e+00 0.000000e+00 0.000000e+00 0.000000e+00 
3.637044e-01 3.676556e+03 0.000000e+00 4.762432e+07 6.666667e-01 3.333333e-01 0.000000e+00 0.000000e+00 0.000000e+00 0.000000e+00 
3.637370e-01 3.676556e+03 0.000000e+00 4.762432e+07 6.666667e-01 3.333333e-01 0.000000e+00 0.000000e+00 0.000000e+00 0.000000e+00 
3.637695e-01 3.676556e+03 0.000000e+00 4.762432e+07 6.666667e-01 3.333333e-01 0.000000e+00 0.000000e+00 0.000000e+00 0.000000e+00 
3.638021e-01 3.676556e+03 0.000000e+00 4.762432e+07 6.666667e-01 3.333333e-01 0.000000e+00 0.000000e+00 0.000000e+00 0.000000e+00 
3.638346e-01 3.676556e+03 0.000000e+00 4.762432e+07 6.666667e-01 3.333333e-01 0.000000e+00 0.000000e+00 0.000000e+00 0.000000e+00 
3.638672e-01 3.676556e+03 0.000000e+00 4.762432e+07 6.666667e-01 3.333333e-01 0.000000e+00 0.000000e+00 0.000000e+00 0.000000e+00 
3.638997e-01 3.676556e+03 0.000000e+00 4.762432e+07 6.666667e-01 3.333333e-01 0.000000e+00 0.000000e+00 0.000000e+00 0.000000e+00 
3.639323e-01 3.676556e+03 0.000000e+00 4.762432e+07 6.666667e-01 3.333333e-01 0.000000e+00 0.000000e+00 0.000000e+00 0.000000e+00 
3.639648e-01 3.676556e+03 0.000000e+00 4.762432e+07 6.666667e-01 3.333333e-01 0.000000e+00 0.000000e+00 0.000000e+00 0.000000e+00 
3.639974e-01 3.676556e+03 0.000000e+00 4.762432e+07 6.666667e-01 3.333333e-01 0.000000e+00 0.000000e+00 0.000000e+00 0.000000e+00 
3.640299e-01 3.676556e+03 0.000000e+00 4.762432e+07 6.666667e-01 3.333333e-01 0.000000e+00 0.000000e+00 0.000000e+00 0.000000e+00 
3.640625e-01 3.676556e+03 0.000000e+00 4.762432e+07 6.666667e-01 3.333333e-01 0.000000e+00 0.000000e+00 0.000000e+00 0.000000e+00 
3.640951e-01 3.676556e+03 0.000000e+00 4.762432e+07 6.666667e-01 3.333333e-01 0.000000e+00 0.000000e+00 0.000000e+00 0.000000e+00 
3.641276e-01 3.676556e+03 0.000000e+00 4.762432e+07 6.666667e-01 3.333333e-01 0.000000e+00 0.000000e+00 0.000000e+00 0.000000e+00 
3.641927e-01 3.676556e+03 0.000000e+00 4.762432e+07 6.666667e-01 3.333333e-01 0.000000e+00 0.000000e+00 0.000000e+00 0.000000e+00 
3.642578e-01 3.676556e+03 0.000000e+00 4.762432e+07 6.666667e-01 3.333333e-01 0.000000e+00 0.000000e+00 0.000000e+00 0.000000e+00 
3.643229e-01 3.676556e+03 0.000000e+00 4.762432e+07 6.666667e-01 3.333333e-01 0.000000e+00 0.000000e+00 0.000000e+00 0.000000e+00 
3.643880e-01 3.676556e+03 0.000000e+00 4.762432e+07 6.666667e-01 3.333333e-01 0.000000e+00 0.000000e+00 0.000000e+00 0.000000e+00 
3.644531e-01 3.676556e+03 0.000000e+00 4.762432e+07 6.666667e-01 3.333333e-01 0.000000e+00 0.000000e+00 0.000000e+00 0.000000e+00 
3.645182e-01 3.676556e+03 0.000000e+00 4.762432e+07 6.666667e-01 3.333333e-01 0.000000e+00 0.000000e+00 0.000000e+00 0.000000e+00 
3.645833e-01 3.676556e+03 0.000000e+00 4.762432e+07 6.666667e-01 3.333333e-01 0.000000e+00 0.000000e+00 0.000000e+00 0.000000e+00 
3.646484e-01 3.676556e+03 0.000000e+00 4.762432e+07 6.666667e-01 3.333333e-01 0.000000e+00 0.000000e+00 0.000000e+00 0.000000e+00 
3.647135e-01 3.676556e+03 0.000000e+00 4.762432e+07 6.666667e-01 3.333333e-01 0.000000e+00 0.000000e+00 0.000000e+00 0.000000e+00 
3.647786e-01 3.676556e+03 0.000000e+00 4.762432e+07 6.666667e-01 3.333333e-01 0.000000e+00 0.000000e+00 0.000000e+00 0.000000e+00 
3.648438e-01 3.676556e+03 0.000000e+00 4.762432e+07 6.666667e-01 3.333333e-01 0.000000e+00 0.000000e+00 0.000000e+00 0.000000e+00 
3.649089e-01 3.676556e+03 0.000000e+00 4.762432e+07 6.666667e-01 3.333333e-01 0.000000e+00 0.000000e+00 0.000000e+00 0.000000e+00 
3.649740e-01 3.676556e+03 0.000000e+00 4.762432e+07 6.666667e-01 3.333333e-01 0.000000e+00 0.000000e+00 0.000000e+00 0.000000e+00 
3.650391e-01 3.676556e+03 0.000000e+00 4.762432e+07 6.666667e-01 3.333333e-01 0.000000e+00 0.000000e+00 0.000000e+00 0.000000e+00 
3.651042e-01 3.676556e+03 0.000000e+00 4.762432e+07 6.666667e-01 3.333333e-01 0.000000e+00 0.000000e+00 0.000000e+00 0.000000e+00 
3.651693e-01 3.676556e+03 0.000000e+00 4.762432e+07 6.666667e-01 3.333333e-01 0.000000e+00 0.000000e+00 0.000000e+00 0.000000e+00 
3.652344e-01 3.676556e+03 0.000000e+00 4.762432e+07 6.666667e-01 3.333333e-01 0.000000e+00 0.000000e+00 0.000000e+00 0.000000e+00 
3.652995e-01 3.676556e+03 0.000000e+00 4.762432e+07 6.666667e-01 3.333333e-01 0.000000e+00 0.000000e+00 0.000000e+00 0.000000e+00 
3.653646e-01 3.676556e+03 0.000000e+00 4.762432e+07 6.666667e-01 3.333333e-01 0.000000e+00 0.000000e+00 0.000000e+00 0.000000e+00 
3.654297e-01 3.676556e+03 0.000000e+00 4.762432e+07 6.666667e-01 3.333333e-01 0.000000e+00 0.000000e+00 0.000000e+00 0.000000e+00 
3.654948e-01 2.980000e+02 0.000000e+00 1.013250e+06 6.666667e-01 3.333333e-01 0.000000e+00 0.000000e+00 0.000000e+00 0.000000e+00 
3.655599e-01 2.980000e+02 0.000000e+00 1.013250e+06 6.666667e-01 3.333333e-01 0.000000e+00 0.000000e+00 0.000000e+00 0.000000e+00 
3.656250e-01 2.980000e+02 0.000000e+00 1.013250e+06 6.666667e-01 3.333333e-01 0.000000e+00 0.000000e+00 0.000000e+00 0.000000e+00 
3.656901e-01 2.980000e+02 0.000000e+00 1.013250e+06 6.666667e-01 3.333333e-01 0.000000e+00 0.000000e+00 0.000000e+00 0.000000e+00 
3.657552e-01 2.980000e+02 0.000000e+00 1.013250e+06 6.666667e-01 3.333333e-01 0.000000e+00 0.000000e+00 0.000000e+00 0.000000e+00 
3.658203e-01 2.980000e+02 0.000000e+00 1.013250e+06 6.666667e-01 3.333333e-01 0.000000e+00 0.000000e+00 0.000000e+00 0.000000e+00 
3.658854e-01 2.980000e+02 0.000000e+00 1.013250e+06 6.666667e-01 3.333333e-01 0.000000e+00 0.000000e+00 0.000000e+00 0.000000e+00 
3.659505e-01 2.980000e+02 0.000000e+00 1.013250e+06 6.666667e-01 3.333333e-01 0.000000e+00 0.000000e+00 0.000000e+00 0.000000e+00 